# ODT 1.0
# Table Start
# Title: mmArchive Data Table, Mon Jul 18 16:39:54 BST 2022
# Columns: {Oxs_RungeKuttaEvolve:evolver:Total energy} {Oxs_RungeKuttaEvolve:evolver:Energy calc count} {Oxs_RungeKuttaEvolve:evolver:Max dm/dt} Oxs_RungeKuttaEvolve:evolver:dE/dt {Oxs_RungeKuttaEvolve:evolver:Delta E} Oxs_DMI_T:dmi:Energy Oxs_UniformExchange:exchange:Energy {Oxs_UniformExchange:exchange:Max Spin Ang} {Oxs_UniformExchange:exchange:Stage Max Spin Ang} {Oxs_UniformExchange:exchange:Run Max Spin Ang} Oxs_FixedZeeman:zeeman:Energy Oxs_Demag:demag:Energy Oxs_TimeDriver::Iteration {Oxs_TimeDriver::Stage iteration} Oxs_TimeDriver::Stage Oxs_TimeDriver::mx   Oxs_TimeDriver::my   Oxs_TimeDriver::mz   {Oxs_TimeDriver::Last time step} {Oxs_TimeDriver::Simulation time}
# Units:                        J                                             {}                                         deg/ns                                 J/s                                   J                             J                            J                                      deg                                            deg                                              deg                                     J                         J                       {}                            {}                          {}                   {}                   {}                   {}                          s                                 s                
                       1.08283490361e-18                              1                                            0                                     0                                    0                            -1.2269732525400001e-18         1.8210509598300001e-18                     85.858733844900001                             85.858733844900001                               85.858733844900001                     0                          4.8875719631199997e-19     0                             0                           0                    -0.27137828502400002  0.23667874877699999 -0.63152689431499998        0                                0                         
# Table End
