# ODT 1.0
# Table Start
# Title: mmArchive Data Table, Thu Jul 21 18:31:53 BST 2022
# Columns: {Oxs_RungeKuttaEvolve:evolver:Total energy} {Oxs_RungeKuttaEvolve:evolver:Energy calc count} {Oxs_RungeKuttaEvolve:evolver:Max dm/dt} Oxs_RungeKuttaEvolve:evolver:dE/dt {Oxs_RungeKuttaEvolve:evolver:Delta E} Oxs_DMI_T:dmi:Energy Oxs_UniformExchange:exchange:Energy {Oxs_UniformExchange:exchange:Max Spin Ang} {Oxs_UniformExchange:exchange:Stage Max Spin Ang} {Oxs_UniformExchange:exchange:Run Max Spin Ang} Oxs_FixedZeeman:zeeman:Energy Oxs_TimeDriver::Iteration {Oxs_TimeDriver::Stage iteration} Oxs_TimeDriver::Stage Oxs_TimeDriver::mx   Oxs_TimeDriver::my   Oxs_TimeDriver::mz   {Oxs_TimeDriver::Last time step} {Oxs_TimeDriver::Simulation time}
# Units:                        J                                             {}                                         deg/ns                                 J/s                                   J                             J                            J                                      deg                                            deg                                              deg                                     J                          {}                            {}                          {}                   {}                   {}                   {}                          s                                 s                
                       1.9237197086099998e-18                            2                                            0                                     0                                    0                            -5.8950023263499997e-18         4.8124585835299997e-18                     85.858733844900001                             85.858733844900001                               85.858733844900001                     3.0062634514300001e-18         0                             0                           0                    -0.26893406764099997  0.23311339361700001 -0.62630488571499998        0                                0                         
# Table End
