# ODT 1.0
# Table Start
# Title: mmArchive Data Table, Thu Jul 21 17:09:12 BST 2022
# Columns: {Oxs_RungeKuttaEvolve:evolver:Total energy} {Oxs_RungeKuttaEvolve:evolver:Energy calc count} {Oxs_RungeKuttaEvolve:evolver:Max dm/dt} Oxs_RungeKuttaEvolve:evolver:dE/dt {Oxs_RungeKuttaEvolve:evolver:Delta E} Oxs_DMI_T:dmi:Energy Oxs_UniformExchange:exchange:Energy {Oxs_UniformExchange:exchange:Max Spin Ang} {Oxs_UniformExchange:exchange:Stage Max Spin Ang} {Oxs_UniformExchange:exchange:Run Max Spin Ang} Oxs_FixedZeeman:zeeman:Energy Oxs_TimeDriver::Iteration {Oxs_TimeDriver::Stage iteration} Oxs_TimeDriver::Stage Oxs_TimeDriver::mx   Oxs_TimeDriver::my   Oxs_TimeDriver::mz   {Oxs_TimeDriver::Last time step} {Oxs_TimeDriver::Simulation time}
# Units:                        J                                             {}                                         deg/ns                                 J/s                                   J                             J                            J                                      deg                                            deg                                              deg                                     J                          {}                            {}                          {}                   {}                   {}                   {}                          s                                 s                
                      -1.3617316363700001e-17                            1                                            0                                     0                                    0                            -1.5072900431200001e-17         4.5379649328000004e-18                     18.6021636153                                  18.6021636153                                    18.6021636153                         -3.0823808653200001e-18         0                             0                           0                    -1.07148885824e-08    1.8883564412399999e-08  0.64216268027500001        0                                0                         
# Table End
