# ODT 1.0
# Table Start
# Title: mmArchive Data Table, Wed Jul 20 18:01:27 BST 2022
# Columns: {Oxs_RungeKuttaEvolve:evolver:Total energy} {Oxs_RungeKuttaEvolve:evolver:Energy calc count} {Oxs_RungeKuttaEvolve:evolver:Max dm/dt} Oxs_RungeKuttaEvolve:evolver:dE/dt {Oxs_RungeKuttaEvolve:evolver:Delta E} Oxs_DMI_T:dmi:Energy Oxs_UniformExchange:exchange:Energy {Oxs_UniformExchange:exchange:Max Spin Ang} {Oxs_UniformExchange:exchange:Stage Max Spin Ang} {Oxs_UniformExchange:exchange:Run Max Spin Ang} Oxs_TimeDriver::Iteration {Oxs_TimeDriver::Stage iteration} Oxs_TimeDriver::Stage Oxs_TimeDriver::mx   Oxs_TimeDriver::my   Oxs_TimeDriver::mz   {Oxs_TimeDriver::Last time step} {Oxs_TimeDriver::Simulation time}
# Units:                        J                                             {}                                         deg/ns                                 J/s                                   J                             J                            J                                      deg                                            deg                                              deg                                  {}                            {}                          {}                   {}                   {}                   {}                          s                                 s                
                       1.3958514375000001e-19                            1                                            0                                     0                                    0                            -2.8665511185299999e-19         4.2624025560299998e-19                     85.858733844900001                             85.858733844900001                               85.858733844900001                   0                             0                           0                    -0.066452536479600005  0.23496833459899999 -0.67707340389500004        0                                0                         
# Table End
