# ODT 1.0
# Table Start
# Title: mmArchive Data Table, Thu Jul 21 10:24:59 BST 2022
# Columns: {Oxs_CGEvolve:evolver:Max mxHxm} {Oxs_CGEvolve:evolver:Total energy} {Oxs_CGEvolve:evolver:Delta E} {Oxs_CGEvolve:evolver:Bracket count} {Oxs_CGEvolve:evolver:Line min count} {Oxs_CGEvolve:evolver:Conjugate cycle count} {Oxs_CGEvolve:evolver:Cycle count} {Oxs_CGEvolve:evolver:Cycle sub count} {Oxs_CGEvolve:evolver:Energy calc count} Oxs_DMI_T:dmi:Energy Oxs_UniformExchange:exchange:Energy {Oxs_UniformExchange:exchange:Max Spin Ang} {Oxs_UniformExchange:exchange:Stage Max Spin Ang} {Oxs_UniformExchange:exchange:Run Max Spin Ang} Oxs_FixedZeeman:zeeman:Energy Oxs_MinDriver::Iteration {Oxs_MinDriver::Stage iteration} Oxs_MinDriver::Stage Oxs_MinDriver::mx    Oxs_MinDriver::my    Oxs_MinDriver::mz   
# Units:                 A/m                                 J                                J                                 {}                                   {}                                        {}                                      {}                                   {}                                      {}                             J                            J                                      deg                                            deg                                              deg                                     J                          {}                           {}                         {}                 {}                   {}                   {}           
                  0.076599750805400005              -1.3617316363700001e-17               0                                 270                                  196                                       30                                      231                                  134                                     467                           -1.5072900431200001e-17         4.5379649328000004e-18                     18.6021636153                                  85.858733844900001                               85.858733844900001                    -3.0823808653200001e-18         437                          437                        0                   -1.07148885775e-08    1.88835644088e-08    0.64216268027500001
# Table End
