# ODT 1.0
# Table Start
# Title: mmArchive Data Table, Wed Jul 20 17:31:19 BST 2022
# Columns: {Oxs_RungeKuttaEvolve:evolver:Total energy} {Oxs_RungeKuttaEvolve:evolver:Energy calc count} {Oxs_RungeKuttaEvolve:evolver:Max dm/dt} Oxs_RungeKuttaEvolve:evolver:dE/dt {Oxs_RungeKuttaEvolve:evolver:Delta E} Oxs_DMI_T:dmi:Energy Oxs_UniformExchange:exchange:Energy {Oxs_UniformExchange:exchange:Max Spin Ang} {Oxs_UniformExchange:exchange:Stage Max Spin Ang} {Oxs_UniformExchange:exchange:Run Max Spin Ang} Oxs_TimeDriver::Iteration {Oxs_TimeDriver::Stage iteration} Oxs_TimeDriver::Stage Oxs_TimeDriver::mx   Oxs_TimeDriver::my   Oxs_TimeDriver::mz   {Oxs_TimeDriver::Last time step} {Oxs_TimeDriver::Simulation time}
# Units:                        J                                             {}                                         deg/ns                                 J/s                                   J                             J                            J                                      deg                                            deg                                              deg                                  {}                            {}                          {}                   {}                   {}                   {}                          s                                 s                
                       8.4307713554400005e-20                            1                                            0                                     0                                    0                            -4.5474735088599998e-36         8.4307713554400005e-20                     83.982715231499995                             83.982715231499995                               83.982715231499995                   0                             0                           0                    -0.18624121073300001 -0.40113488176500001 -0.55872363592399998        0                                0                         
# Table End
